
                                 *****************
                                 * O   R   C   A *
                                 *****************

                                            #,                                       
                                            ###                                      
                                            ####                                     
                                            #####                                    
                                            ######                                   
                                           ########,                                 
                                     ,,################,,,,,                         
                               ,,#################################,,                 
                          ,,##########################################,,             
                       ,#########################################, ''#####,          
                    ,#############################################,,   '####,        
                  ,##################################################,,,,####,       
                ,###########''''           ''''###############################       
              ,#####''   ,,,,##########,,,,          '''####'''          '####       
            ,##' ,,,,###########################,,,                        '##       
           ' ,,###''''                  '''############,,,                           
         ,,##''                                '''############,,,,        ,,,,,,###''
      ,#''                                            '''#######################'''  
     '                                                          ''''####''''         
             ,#######,   #######,   ,#######,      ##                                
            ,#'     '#,  ##    ##  ,#'     '#,    #''#        ,####,    ,#,          
            ##       ##  ##   ,#'  ##            #'  '#       #'       ,# #          
            ##       ##  #######   ##           ,######,      #####,      #          
            '#,     ,#'  ##    ##  '#,     ,#' ,#      #,     #,   #      #          
             '#######'   ##     ##  '#######'  #'      '#     '####' #    #          



                #########################################################
                #                        -***-                          #
                #          Department of theory and spectroscopy        #
                #                                                       #
                #                      Frank Neese                      #
                #                                                       #
                #     Directorship, Architecture, Infrastructure        #
                #                    SHARK, DRIVERS                     #
                #        Core code/Algorithms in most modules           #
                #                                                       #
                #        Max Planck Institute fuer Kohlenforschung      #
                #                Kaiser Wilhelm Platz 1                 #
                #                 D-45470 Muelheim/Ruhr                 #
                #                      Germany                          #
                #                                                       #
                #                  All rights reserved                  #
                #                        -***-                          #
                #########################################################


                         Program Version 6.1.1  -  RELEASE   -
                                (GIT: $487d211c$)
                          ($2025-11-21 10:33:24 +0100$)


 With contributions from (in alphabetic order):
[Max-Planck-Institut fuer Kohlenforschung]                               
  Daniel Aravena         : Magnetic Suceptibility                        
  Michael Atanasov       : Ab Initio Ligand Field Theory (pilot matlab implementation)
  Alexander A. Auer      : GIAO ZORA, VPT2 properties, NMR spectrum      
  Ute Becker             : All parallelization in ORCA, NUMFREQ, NUMCALC 
  Giovanni Bistoni       : ED, misc. LED, open-shell LED, HFLD           
  Dmytro Bykov           : pre 5.0 version of the SCF Hessian            
  Marcos Casanova-Páez   : Triplet and SCS-CIS(D). UHF-(DLPNO)-IP/EA/STEOM-CCSD. UHF-CVS-IP/STEOM-CCSD   
  Vijay G. Chilkuri      : MRCI spin determinant printing, contributions to CSF-ICE 
  Pauline Colinet        : FMM embedding                                 
  Dipayan Datta          : RHF DLPNO-CCSD density                        
  Achintya Kumar Dutta   : EOM-CC, STEOM-CC                              
  Nicolas Foglia         : Exact transition moments, OPA infrastructure, MCD improvements    
  Dmitry Ganyushin       : Spin-Orbit,Spin-Spin,Magnetic field MRCI      
  Miquel Garcia-Rates    : C-PCM and meta-GGA Hessian, CCSD/C-PCM, Gaussian charge scheme 
  Tiago L. C. Gouveia    : GS-ROHF, GS-ROCIS                             
  Yang Guo               : DLPNO-NEVPT2, F12-NEVPT2, CIM, IAO-localization        
  Andreas Hansen         : Spin unrestricted coupled pair/coupled cluster methods 
  Ingolf Harden          : AUTO-CI MPn and infrastructure                
  Benjamin Helmich-Paris : MC-RPA, TRAH-(SCF,CASSCF), AVAS, COSX integrals, SCF dyn. polar., MC-PDFT, srDFT 
  Lee Huntington         : MR-EOM, pCC                                   
  Robert Izsak           : Overlap fitted RIJCOSX, COSX-SCS-MP3, EOM     
  Riya Kayal             : Wick's Theorem for AUTO-CI, AUTO-CI UHF-CCSDT 
  Emily Kempfer          : AUTO-CI RHF CISDT and CCSDT, approximate NEVPT4
  Christian Kollmar      : KDIIS, OOCD, Brueckner-CCSD(T), CCSD density, CASPT2, CASPT2-K, improved NEVPT2 
  Axel Koslowski         : Symmetry handling                             
  Simone Kossmann        : meta-GGA functionals, TD-DFT gradient, OOMP2, (MP2 Hessian; deprecated post 5.0) 
  Lucas Lang             : DCDCAS, Hyperfine gauge corrections, ICE-SOC+SSC
  Marvin Lechner         : AUTO-CI (C++ implementation), FIC-MRCC        
  Spencer Leger          : CASSCF response                               
  Dagmar Lenk            : GEPOL surface, SMD, ORCA-2-JSON               
  Dimitrios Liakos       : Extrapolation schemes; Compound Job, Property file
  Dimitrios Manganas     : Further ROCIS development; embedding schemes. LFT, Crystal Embedding 
  Dimitrios Pantazis     : SARC Basis sets                               
  Anastasios Papadopoulos: AUTO-CI, single reference methods and gradients 
  Taras Petrenko         : pre 6.0 DFT Hessian and TD-DFT gradient,  ECA, NRVS 
  Petra Pikulova         : Analytic Raman intensities                    
  Peter Pinski           : DLPNO-MP2, DLPNO-MP2 Gradient                 
  Shashank Vittal Rao    : ES-AILFT, MagRelax                            
  Christoph Reimann      : Effective Core Potentials                     
  Marius Retegan         : Local ZFS, SOC                                
  Christoph Riplinger    : Optimizer, TS searches, QM/MM, DLPNO-CCSD(T), (RO)-DLPNO pert. Triples 
  Michael Roemelt        : Original ROCIS implementation, recursive CI coupling coefficients
  Masaaki Saitow         : Open-shell DLPNO-CCSD energy and density      
  Barbara Sandhoefer     : DKH picture change effects                    
  Yorick L. A. Schmerwitz: GMF and freeze-and-release deltaSCF, NEB S-IDPP initial path                    
  Kantharuban Sivalingam : CASSCF convergence/infrastructure, NEVPT2, NEVPT3, NEVPT4(SD), FIC-MRCI and CEPA variants
  Bernardo de Souza      : ESD, SOC TD-DFT                               
  Georgi L. Stoychev     : AutoAux, RI-MP2 NMR, DLPNO-MP2 response, X2C  
  Van Anh Tran           : RI-MP2 g-tensors                              
  Willem Van den Heuvel  : Paramagnetic NMR                              
  Zikuan Wang            : NOTCH, Electric field optimization            
  Frank Wennmohs         : Technical directorship and infrastructure     
  Hang Xu                : AUTO-CI-Response properties                   
                                                                         
[FACCTs GmbH]                                                            
  Markus Bursch, Nicolas Foglia, Miquel Garcia-Rates, Ingolf Harden, Hagen Neugebauer, Anastasios Papadopoulos, 
  Christoph Riplinger, Bernardo de Souza, Georgi L. Stoychev                                                    
                                                                 
  APM, various basis sets, CI-OPT, improved COSX, DLPNO-Multilevel,           
  DOCKER, DRACO, updates on ESD, Fragmentator, GOAT, IRC, LR-CPCM, L-BFGS, MBIS, meta-GGA TD-DFT gradient, ML-optimized integration grids, 
  MM, NACMEs, nearIR, NEB, NEB-TS, NL-DFT gradient (VV10), 2- and 3-layer-ONIOM, interface openCOSMO-RS, QMMM,   
  Crystal-QMMM, RESP, rigid body optimization, SF, symmetry and pop. for TD-DFT, various functionals, SOLVATOR                                   
                                                                         
[Other institutions]                                                     
  V. Asgeirsson          : NEB                                           
  Christoph Bannwarth    : sTDA-DFT, sTD-DFT, PBEh-3c, B97-3c, D3        
  Giovanni Bistoni       : ETS/NOCV, ADLD/ADEX, COVALED                  
  Martin Brehm           : Molecular dynamics                            
  Ronald Cardenas        : ETS/NOCV                                      
  Martina Colucci        : COVALED                                       
  Sebastian Ehlert       : rSCAN, r2SCAN, r2SCAN-3c, D4, dhf basis sets  
  Marvin Friede          : D4 for Fr, Ra, Ac-Lr                          
  Lars Goerigk           : TD-DFT with DH, B97 family of functionals     
  Stefan Grimme          : VdW corrections, initial TS optimization, DFT functionals, gCP, sTDA/sTD-DF 
  Waldemar Hujo          : DFT-NL                                        
  H. Jonsson             : NEB                                           
  Holger Kruse           : gCP                                           
  Marcel Mueller         : wB97X-3c, vDZP basis set                      
  Hagen Neugebauer       : wr2SCAN, Native XTB                           
  Gianluca Regni         : ADLD/ADEX                                     
  Tobias Risthaus        : pre 6.0 range-separated hybrid DFT and stability analysis
  Lukas Wittmann         : regularized MP2, r2SCAN double-hybrids, wr2SCAN        
                                                                         
We gratefully acknowledge several colleagues who have allowed us to      
interface, adapt or use parts of their codes:                            
  Ed Valeev, F. Pavosevic, A. Kumar             : LibInt (2-el integral package), F12 methods 
  Garnet Chan, S. Sharma, J. Yang, R. Olivares  : DMRG                   
  Ulf Ekstrom                                   : XCFun DFT Library      
  Mihaly Kallay                                 : mrcc  (arbitrary order and MRCC methods)
  Frank Weinhold                                : gennbo (NPA and NBO analysis)           
  Simon Mueller                                 : openCOSMO-RS                            
  Christopher J. Cramer and Donald G. Truhlar   : smd solvation model                     
  S Lehtola, MJT Oliveira, MAL Marques          : LibXC Library                           
  Liviu Ungur et al                             : ANISO software                          


 Your calculation uses the libint2 library for the computation of 2-el integrals
 For citations please refer to: http://libint.valeyev.net

 Your ORCA version has been built with support for libXC version: 7.0.0
 For citations please refer to: https://libxc.gitlab.io

 This ORCA versions uses:
   CBLAS   interface :  Fast vector & matrix operations
   LAPACKE interface :  Fast linear algebra routines
   SCALAPACK package :  Parallel linear algebra routines
   Shared memory     :  Shared parallel matrices
   BLAS/LAPACK       :  OpenBLAS 0.3.29  USE64BITINT DYNAMIC_ARCH NO_AFFINITY Zen SINGLE_THREADED
        Core in use  :  Zen
   Copyright (c) 2011-2014, The OpenBLAS Project


  ***********************************
  * Starting time: Sun Feb 22 20:08:55 2026
  * Host name:     AlfredLinux
  * Process ID:    27129
  * Working dir.:  /home/marcustl/programming/orca_testing
  ***********************************

Warning: RI is on but no J-basis has been assigned. Assigning Def2/J (nothing to worry about!)
================================================================================

----- Orbital basis set information -----
Your calculation utilizes the basis: cc-pVDZ 
       H, B-Ne : Obtained from the ccRepo (grant-hill.group.shef.ac.uk/ccrepo) Feb. 2017
                 T. H. Dunning, Jr., J. Chem. Phys. 90, 1007 (1989)
            He : Obtained from the ccRepo (grant-hill.group.shef.ac.uk/ccrepo) Feb. 2017
                 D. E. Woon, T. H. Dunning, Jr., J. Chem. Phys. 100, 2975 (1994)
  Li-Be, Na-Mg : Obtained from the ccRepo (grant-hill.group.shef.ac.uk/ccrepo) Feb. 2017
                 B. P. Prascher, D. E. Woon, K. A. Peterson, T. H. Dunning, Jr., A. K. Wilson, Theor. Chem. Acc. 128, 69 (2011)
         Al-Ar : Obtained from the ccRepo (grant-hill.group.shef.ac.uk/ccrepo) Feb. 2017
                 D. E. Woon, T. H. Dunning, Jr., J. Chem. Phys. 98, 1358 (1993)
            Ca : Obtained from the Peterson Research Group Website (tyr0.chem.wsu.edu/~kipeters) Feb. 2017
                 J. Koput, K. A. Peterson, J. Phys. Chem. 106, 9595 (2002)
         Sc-Zn : Obtained from the ccRepo (grant-hill.group.shef.ac.uk/ccrepo) Feb. 2017
                 N. B. Balabanov, K. A. Peterson, J. Chem. Phys. 123, 064107 (2005)
                 N. B. Balabanov, K. A. Peterson, J. Chem. Phys. 125, 074110 (2006)
         Ga-Kr : Obtained from the ccRepo (grant-hill.group.shef.ac.uk/ccrepo) Feb. 2017
                 A. K. Wilson, D. E. Woon, K. A. Peterson, T. H. Dunning, Jr., J. Chem. Phys. 110, 7667 (1999)

----- AuxJ basis set information -----
Your calculation utilizes the auxiliary basis: def2/J
   H-Rn: F. Weigend, Phys. Chem. Chem. Phys. 8, 1057 (2006).
   Fr-Lr: K. Eichkorn, F. Weigend, O. Treutler, R. Ahlrichs; Theor. Chem. Acc. 97, 119 (1997).

================================================================================
                                        WARNINGS
                       Please study these warnings very carefully!
================================================================================

WARNING: Old DensityContainer found on disk!
         Will remove this file - 
         If you want to keep old densities, please start your calculation with a different basename. 


================================================================================
                                       INPUT FILE
================================================================================
NAME = water.inp
|  1> !BLYP cc-pVDZ LargePrint Bohrs
|  2> 
|  3> * XYZ 0 1
|  4> O       0.0000  0.0000  -0.1250
|  5> H      -1.4375  0.0000   1.0250
|  6> H       1.4375  0.0000   1.0250
|  7> *
|  8> 
|  9> 
| 10>                          ****END OF INPUT****
================================================================================

                       ****************************
                       * Single Point Calculation *
                       ****************************

---------------------------------
CARTESIAN COORDINATES (ANGSTROEM)
---------------------------------
  O      0.000000    0.000000   -0.066147
  H     -0.760692    0.000000    0.542407
  H      0.760692    0.000000    0.542407

----------------------------
CARTESIAN COORDINATES (A.U.)
----------------------------
  NO LB      ZA    FRAG     MASS         X           Y           Z
   0 O     8.0000    0    15.999    0.000000    0.000000   -0.125000
   1 H     1.0000    0     1.008   -1.437500    0.000000    1.025000
   2 H     1.0000    0     1.008    1.437500    0.000000    1.025000

--------------------------------
INTERNAL COORDINATES (ANGSTROEM)
--------------------------------
 O      0   0   0     0.000000000000     0.00000000     0.00000000
 H      1   0   0     0.974161379904     0.00000000     0.00000000
 H      1   2   0     0.974161379904   102.68038349     0.00000000

---------------------------
INTERNAL COORDINATES (A.U.)
---------------------------
 O      0   0   0     0.000000000000     0.00000000     0.00000000
 H      1   0   0     1.840898218262     0.00000000     0.00000000
 H      1   2   0     1.840898218262   102.68038349     0.00000000

---------------------
BASIS SET INFORMATION
---------------------
There are 2 groups of distinct atoms

 Group   1 Type O   : 17s4p1d contracted to 3s2p1d pattern {881/31/1}
 Group   2 Type H   : 4s1p contracted to 2s1p pattern {31/1}

Atom   0O    basis set group =>   1
Atom   1H    basis set group =>   2
Atom   2H    basis set group =>   2

-------------------------
BASIS SET IN INPUT FORMAT
-------------------------

 # Basis set for element : H 
 NewGTO H 
 S 3 
   1      13.0100000000      0.0334987264
   2       1.9620000000      0.2348008012
   3       0.4446000000      0.8136829579
 S 1 
   1       0.1220000000      1.0000000000
 P 1 
   1       0.7270000000      1.0000000000
  end;

 # Basis set for element : O 
 NewGTO O 
 S 8 
   1   11720.0000000000      0.0007096459
   2    1759.0000000000      0.0054672723
   3     400.8000000000      0.0278231186
   4     113.7000000000      0.1047477397
   5      37.0300000000      0.2829208464
   6      13.2700000000      0.4484952387
   7       5.0250000000      0.2708168852
   8       1.0130000000      0.0154502916
 S 8 
   1   11720.0000000000     -0.0003144434
   2    1759.0000000000     -0.0024821377
   3     400.8000000000     -0.0123163554
   4     113.7000000000     -0.0505389173
   5      37.0300000000     -0.1393849033
   6      13.2700000000     -0.3250774948
   7       5.0250000000     -0.2298483076
   8       1.0130000000      1.0953793468
 S 1 
   1       0.3023000000      1.0000000000
 P 3 
   1      17.7000000000      0.0626791663
   2       3.8540000000      0.3335365659
   3       1.0460000000      0.7412396416
 P 1 
   1       0.2753000000      1.0000000000
 D 1 
   1       1.1850000000      1.0000000000
  end;

---------------------------------
AUXILIARY/J BASIS SET INFORMATION
---------------------------------
There are 2 groups of distinct atoms

 Group   1 Type O   : 12s5p4d2f1g contracted to 6s4p3d1f1g pattern {711111/2111/211/2/1}
 Group   2 Type H   : 5s2p1d contracted to 3s1p1d pattern {311/2/1}

Atom   0O    basis set group =>   1
Atom   1H    basis set group =>   2
Atom   2H    basis set group =>   2

-------------------------------------
AUXILIARY/J BASIS SET IN INPUT FORMAT
-------------------------------------

 # Auxiliary/J basis set for element : H 
 NewAuxJGTO H 
 S 3 
   1      15.6752927000      0.1007184237
   2       3.6063578000      0.3404257499
   3       1.2080016000      0.6491996172
 S 1 
   1       0.4726794000      1.0000000000
 S 1 
   1       0.2018100000      1.0000000000
 P 2 
   1       2.0281365000      0.5596620919
   2       0.5358730000      0.5596620919
 D 1 
   1       2.2165124000      1.0000000000
  end;

 # Auxiliary/J basis set for element : O 
 NewAuxJGTO O 
 S 7 
   1    2876.8216605000      0.0168151159
   2    1004.7443032000      0.0340137548
   3     369.7579954000      0.1194951309
   4     142.9442404000      0.2664627624
   5      57.8366425000      0.4202764046
   6      24.3864983000      0.2765077335
   7      10.6622662000      0.0057008815
 S 1 
   1       4.8070437000     -1.0000000000
 S 1 
   1       2.2210770000      1.0000000000
 S 1 
   1       1.0447795000      1.0000000000
 S 1 
   1       0.4968425000      1.0000000000
 S 1 
   1       0.2371384000      1.0000000000
 P 2 
   1      64.2613382000     -0.2731534179
   2      16.3006076000     -0.8168011598
 P 1 
   1       4.3550542000      1.0000000000
 P 1 
   1       1.2019554000      1.0000000000
 P 1 
   1       0.3354196000      1.0000000000
 D 2 
   1       9.2146611000     -0.4661230638
   2       2.8435251000     -0.6600908911
 D 1 
   1       0.9955759000     -1.0000000000
 D 1 
   1       0.3649441000     -1.0000000000
 F 2 
   1       2.6420115000      0.5931563945
   2       0.7345613000      0.5931563945
 G 1 
   1       1.3931000000     -1.0000000000
  end;

------------------------------------------------------------------------------
                             ORCA STARTUP CALCULATIONS
                           -- RI-GTO INTEGRALS CHOSEN --
------------------------------------------------------------------------------
------------------------------------------------------------------------------
                   ___                                                        
                  /   \      - P O W E R E D   B Y -                         
                 /     \                                                     
                 |  |  |   _    _      __       _____    __    __             
                 |  |  |  | |  | |    /  \     |  _  \  |  |  /  |          
                  \  \/   | |  | |   /    \    | | | |  |  | /  /          
                 / \  \   | |__| |  /  /\  \   | |_| |  |  |/  /          
                |  |  |   |  __  | /  /__\  \  |    /   |      \           
                |  |  |   | |  | | |   __   |  |    \   |  |\   \          
                \     /   | |  | | |  |  |  |  | |\  \  |  | \   \       
                 \___/    |_|  |_| |__|  |__|  |_| \__\ |__|  \__/        
                                                                              
                      - O R C A' S   B I G   F R I E N D -                    
                                      &                                       
                       - I N T E G R A L  F E E D E R -                       
                                                                              
 v1 FN, 2020, v2 2021, v3 2022-2024                                           
------------------------------------------------------------------------------


----------------------
SHARK INTEGRAL PACKAGE
----------------------

Number of atoms                             ...      3
Number of basis functions                   ...     30
Number of shells                            ...     18
Maximum angular momentum                    ...      2
Integral batch strategy                     ... SHARK/LIBINT Hybrid
RI-J (if used) integral strategy            ... SPLIT-RIJ (Revised 2003 algorithm where possible)
Printlevel                                  ...      1
Contraction scheme used                     ... PARTIAL GENERAL contraction
Prescreening option                         ... SCHWARTZ
   Thresh                                   ... 1.000e-10
   Tcut                                     ... 1.000e-11
   Tpresel                                  ... 1.000e-11 
Coulomb Range Separation                    ... NOT USED
Exchange Range Separation                   ... NOT USED
Multipole approximations                    ... NOT USED
Finite Nucleus Model                        ... NOT USED
CABS basis                                  ... NOT available
Auxiliary Coulomb fitting basis             ... AVAILABLE
   # of basis functions in Aux-J            ...     71
   # of shells in Aux-J                     ...     25
   Maximum angular momentum in Aux-J        ...      4
Auxiliary J/K fitting basis                 ... NOT available
Auxiliary Correlation fitting basis         ... NOT available
Auxiliary 'external' fitting basis          ... NOT available

Checking pre-screening integrals            ... done (  0.0 sec) Dimension = 18
Save PGC pre-screening integrals            ... done (  0.0 sec) Dimension = 18
Calculate PGC overlap integrals             ... done (  0.0 sec) Dimension = 12
Calculating pre-screening integrals (ORCA)  ... done (  0.0 sec) Dimension = 12
Shell pair information
Shell pair cut-off parameter TPreSel        ...   1.0e-11
Total number of shell pairs                 ...       171
Shell pairs after pre-screening             ...       171
Total number of primitive shell pairs       ...       309
Primitive shell pairs kept                  ...       298
          la=0 lb=0:     91 shell pairs
          la=1 lb=0:     52 shell pairs
          la=1 lb=1:     10 shell pairs
          la=2 lb=0:     13 shell pairs
          la=2 lb=1:      4 shell pairs
          la=2 lb=2:      1 shell pairs

Checking whether 4 symmetric matrices of dimension 30 fit in memory
:Max Core in MB      =   4096.00
 MB in use           =      3.31
 MB left             =   4092.69
 MB needed           =      0.01
 Data fit in memory  = YES
Calculating RI/J V-Matrix + Cholesky decomp.... done (  0.0 sec)
Calculating Nuclear repulsion               ... done (  0.0 sec) ENN=      9.039235444235 Eh

Diagonalization of the overlap matrix:
Smallest eigenvalue                        ... 3.513e-02
Time for diagonalization                   ...    0.000 sec
Threshold for overlap eigenvalues          ... 1.000e-07
Number of eigenvalues below threshold      ... 0
Time for construction of square roots      ...    0.000 sec
Total time needed                          ...    0.001 sec

-------------------
DFT GRID GENERATION
-------------------

General Integration Accuracy     IntAcc      ... 4.388
Radial Grid Type                 RadialGrid  ... OptM3 with GC (2021)
Angular Grid (max. ang.)         AngularGrid ... 4 (Lebedev-302)
Angular grid pruning method      GridPruning ... 4 (adaptive)
Weight generation scheme         WeightScheme... mBecke (2022)
Basis function cutoff            BFCut       ... 1.0000e-10
Integration weight cutoff        WCut        ... 1.0000e-14
Partially contracted basis set               ... off
Rotationally invariant grid construction     ... off
Angular grids for H and He will be reduced by one unit

Total number of grid points                  ...    12758
Total number of batches                      ...      201
Average number of points per batch           ...       63
Average number of grid points per atom       ...     4253

---------------------
SHARK GRID GENERATION
---------------------

General Integration Accuracy     IntAcc      ... 4.388
Radial Grid Type                 RadialGrid  ... OptM3 with GC (2021)
Angular Grid (max. ang.)         AngularGrid ... 4 (Lebedev-302)
Angular grid pruning method      GridPruning ... 4 (adaptive)
Weight generation scheme         WeightScheme... mBecke (2022)
Basis function cutoff            BFCut       ... 1.0000e-10
Integration weight cutoff        WCut        ... 1.0000e-14
Partially contracted basis set               ... off
Rotationally invariant grid construction     ... off
Angular grids for H and He will be reduced by one unit
Steep s-basis detected: some atoms will have their radial
                        grid points doubled.

Total number of grid points                  ...    18990
Total number of batches                      ...      299
Average number of points per batch           ...       63
Average number of grid points per atom       ...     6330
Grids setup in   0.1 sec
Initializing property integral containers    ... done (  0.0 sec)

SHARK setup successfully completed in   0.2 seconds

Maximum memory used throughout the entire STARTUP-calculation: 13.3 MB
-------------------------------------------------------------------------------
                                 ORCA GUESS
                   Start orbitals & Density for SCF / CASSCF
-------------------------------------------------------------------------------

------------
SCF SETTINGS
------------
Hamiltonian:
 Density Functional     Method          .... DFT(GTOs)
 Exchange Functional    Exchange        .... B88
   X-Alpha parameter    XAlpha          ....  0.666667
   Becke's b parameter  XBeta           ....  0.004200
 Correlation Functional Correlation     .... LYP
 Gradients option       PostSCFGGA      .... off
   NL short-range parameter             ....  4.000000
 RI-approximation to the Coulomb term is turned on
   Number of AuxJ basis functions       .... 71


General Settings:
 Integral files         IntName         .... water
 Hartree-Fock type      HFTyp           .... RHF
 Total Charge           Charge          ....    0
 Multiplicity           Mult            ....    1
 Number of Electrons    NEL             ....   10
 Basis Dimension        Dim             ....   24
 Nuclear Repulsion      ENuc            ....      9.0392354442 Eh

Convergence Acceleration:
 AO-DIIS                CNVDIIS         .... on
   Start iteration      DIISMaxIt       ....    12
   Startup error        DIISStart       ....  0.200000
   # of expansion vecs  DIISMaxEq       ....     5
   Bias factor          DIISBfac        ....   1.050
   Max. coefficient     DIISMaxC        ....  10.000
 MO-DIIS                CNVKDIIS        .... off
 Trust-Rad. Augm. Hess. CNVTRAH         .... auto
   Auto Start mean grad. ratio tolernc. ....  1.125000
   Auto Start start iteration           ....    50
   Auto Start num. interpolation iter.  ....    10
   Max. Number of Micro iterations      ....    24
   Max. Number of Macro iterations      .... Maxiter - #DIIS iter
   Number of Davidson start vectors     ....     2
   Converg. threshold    (grad. norm)   ....   5.000e-05
   Grad. Scal. Fac. for Micro threshold ....   0.100
   Minimum threshold for Micro iter.    ....   1.000e-02
   NR start threshold (gradient norm)   ....   1.000e-04
   Initial trust radius                 ....   0.400
   Minimum AH scaling param. (alpha)    ....   1.000
   Maximum AH scaling param. (alpha)    .... 1000.000
   Quad. conv. algorithm                .... NR
   White noise on init. David. guess    .... on
   Maximum white noise                  ....   0.010
   Pseudo random numbers                .... off
   Inactive MOs                         .... canonical
   Orbital update algorithm             .... Taylor
   Preconditioner                       .... Diag
   Full preconditioner red. dimension   ....   250
 SOSCF                 CNVSOSCF           .... on
   Start iteration     SOSCFMaxIt         ....   150
   Startup grad/error  SOSCFStart         ....  0.003300
   Hessian update      SOSCFHessUp        .... L-BFGS
   Autom. constraints  SOSCFAutoConstrain .... off
 Level Shifting         CNVShift        .... on
   Level shift para.    LevelShift      ....    0.2500
   Turn off err/grad.   ShiftErr        ....    0.0010
 Zerner damping         CNVZerner       .... off
 Static damping         CNVDamp         .... on
   Fraction old density DampFac         ....    0.7000
   Max. Damping (<1)    DampMax         ....    0.9800
   Min. Damping (>=0)   DampMin         ....    0.0000
   Turn off err/grad.   DampErr         ....    0.1000

SCF Procedure:
 Maximum # iterations   MaxIter         ....   125
 SCF integral mode      SCFMode         .... Direct
   Integral package                     .... SHARK and LIBINT hybrid scheme
 Reset frequency        DirectResetFreq ....    20
 Integral Threshold     Thresh          ....  1.000e-10 Eh
 Primitive CutOff       TCut            ....  1.000e-11 Eh

Convergence Tolerance:
 Convergence Check Mode ConvCheckMode   .... Total+1el-Energy
 Convergence forced     ConvForced      .... 0
 Energy Change          TolE            ....  1.000e-06 Eh
 1-El. energy change                    ....  1.000e-03 Eh
 Orbital Gradient       TolG            ....  5.000e-05
 Orbital Rotation angle TolX            ....  5.000e-05
 DIIS Error             TolErr          ....  1.000e-06

------------------------------
INITIAL GUESS: MODEL POTENTIAL
------------------------------
Loading Hartree-Fock densities                     ... done
Calculating cut-offs                               ... done
Initializing the effective Hamiltonian             ... done
Setting up the integral package (SHARK)            ... done
Starting the Coulomb interaction                   ... done (   0.0 sec)
Making the grid                                    ... done (   0.0 sec)
Mapping shells                                     ... done
Starting the XC term evaluation                    ... done (   0.0 sec)
  promolecular density results
     # of electrons  =      9.999319875
     EX              =     -8.776885565
     EC              =     -0.334248788
     EX+EC           =     -9.111134353
Transforming the Hamiltonian                       ... done (   0.0 sec)
Diagonalizing the Hamiltonian                      ... done (   0.0 sec)
Back transforming the eigenvectors                 ... done (   0.0 sec)
Now organizing SCF variables                       ... done
                      ------------------
                      INITIAL GUESS DONE (   0.0 sec)
                      ------------------
----------------------
INITIAL GUESS ORBITALS
----------------------
                      0         1         2         3         4         5   
                 -19.00706  -1.04970  -0.57806  -0.47333  -0.39688  -0.01863
                   2.00000   2.00000   2.00000   2.00000   2.00000   0.00000
                  --------  --------  --------  --------  --------  --------
  0O   1s         1.003597  0.006830 -0.000000  0.001645 -0.000000 -0.004906
  0O   2s         0.008840  0.488370 -0.000000 -0.150797  0.000000  0.187088
  0O   3s        -0.008383  0.362490  0.000000 -0.310641  0.000000  0.815934
  0O   1pz        0.001330  0.106443  0.000000  0.615027  0.000000  0.253717
  0O   1px       -0.000000  0.000000 -0.576406  0.000000 -0.000000 -0.000000
  0O   1py        0.000000 -0.000000 -0.000000 -0.000000  0.691219 -0.000000
  0O   2pz       -0.000873 -0.013525  0.000000  0.317510  0.000000  0.281341
  0O   2px       -0.000000  0.000000 -0.214917  0.000000 -0.000000 -0.000000
  0O   2py       -0.000000  0.000000 -0.000000 -0.000000  0.434467  0.000000
  0O   1dz2      -0.000008  0.001467  0.000000  0.013469  0.000000  0.005149
  0O   1dxz       0.000000  0.000000 -0.018596  0.000000 -0.000000 -0.000000
  0O   1dyz      -0.000000  0.000000 -0.000000 -0.000000  0.013769  0.000000
  0O   1dx2y2     0.000345  0.002837  0.000000  0.001194  0.000000 -0.002245
  0O   1dxy      -0.000000  0.000000  0.000000 -0.000000 -0.000000  0.000000
  1H   1s        -0.000172  0.178027  0.289500  0.191543 -0.000000 -0.188420
  1H   2s         0.001158  0.002665  0.054827  0.021333  0.000000 -0.704467
  1H   1pz        0.000780 -0.019880 -0.030456  0.005579  0.000000 -0.000699
  1H   1px       -0.000776  0.034684  0.016958  0.028075 -0.000000  0.007509
  1H   1py        0.000000 -0.000000  0.000000  0.000000  0.025870 -0.000000
  2H   1s        -0.000172  0.178027 -0.289500  0.191543  0.000000 -0.188420
  2H   2s         0.001158  0.002665 -0.054827  0.021333 -0.000000 -0.704467
  2H   1pz        0.000780 -0.019880  0.030456  0.005579 -0.000000 -0.000699
  2H   1px        0.000776 -0.034684  0.016958 -0.028075 -0.000000 -0.007509
  2H   1py        0.000000 -0.000000  0.000000  0.000000  0.025870 -0.000000
                      6         7         8         9        10        11   
                   0.04942   0.43903   0.49421   0.73149   0.74030   0.84089
                   0.00000   0.00000   0.00000   0.00000   0.00000   0.00000
                  --------  --------  --------  --------  --------  --------
  0O   1s        -0.000000 -0.000000  0.064315  0.000000 -0.062758 -0.000000
  0O   2s        -0.000000 -0.000000  0.210362  0.000000 -0.260129 -0.000000
  0O   3s        -0.000000  0.000000 -0.372282  0.000000 -0.383944  0.000000
  0O   1pz       -0.000000 -0.000000  0.438704 -0.000000  0.701572 -0.000000
  0O   1px       -0.412007  0.254182 -0.000000  0.000000  0.000000  0.748396
  0O   1py       -0.000000  0.000000 -0.000000 -0.925767 -0.000000  0.000000
  0O   2pz       -0.000000 -0.000000 -0.187197  0.000000 -1.250361  0.000000
  0O   2px       -0.533478  0.243308  0.000000 -0.000000 -0.000000 -1.771835
  0O   2py        0.000000 -0.000000  0.000000  1.033228  0.000000 -0.000000
  0O   1dz2      -0.000000  0.000000 -0.005776  0.000000 -0.014498  0.000000
  0O   1dxz       0.007554 -0.112002 -0.000000 -0.000000 -0.000000 -0.005326
  0O   1dyz       0.000000  0.000000  0.000000  0.002944  0.000000 -0.000000
  0O   1dx2y2     0.000000  0.000000 -0.096795 -0.000000  0.038046 -0.000000
  0O   1dxy      -0.000000 -0.000000 -0.000000 -0.000000  0.000000 -0.000000
  1H   1s        -0.231658  0.936457 -0.784098 -0.000000  0.580602 -0.348081
  1H   2s        -1.148542 -1.011560  0.662965 -0.000000 -0.013954 -0.869255
  1H   1pz       -0.008093  0.101886 -0.051312  0.000000 -0.185142  0.111838
  1H   1px        0.005421 -0.040407  0.212214 -0.000000  0.004344 -0.218225
  1H   1py       -0.000000  0.000000 -0.000000  0.035427  0.000000 -0.000000
  2H   1s         0.231658 -0.936457 -0.784098 -0.000000  0.580602  0.348081
  2H   2s         1.148542  1.011560  0.662965  0.000000 -0.013954  0.869255
  2H   1pz        0.008093 -0.101886 -0.051312  0.000000 -0.185142 -0.111838
  2H   1px        0.005421 -0.040407 -0.212214 -0.000000 -0.004344 -0.218225
  2H   1py       -0.000000  0.000000  0.000000  0.035427  0.000000 -0.000000
                     12        13        14        15        16        17   
                   1.06284   1.12501   1.29672   1.41885   1.56448   1.92323
                   0.00000   0.00000   0.00000   0.00000   0.00000   0.00000
                  --------  --------  --------  --------  --------  --------
  0O   1s         0.232226  0.000000 -0.000000 -0.722450 -0.000000 -0.000000
  0O   2s         0.582141  0.000000 -0.000000 -1.580065 -0.000000 -0.000000
  0O   3s        -0.639227 -0.000000  0.000000  2.969500  0.000000  0.000000
  0O   1pz       -0.082583 -0.000000  0.000000  0.014109 -0.000000 -0.000000
  0O   1px        0.000000  0.000000 -0.000000  0.000000 -0.008319 -0.696673
  0O   1py        0.000000  0.000000 -0.026275  0.000000  0.000000  0.000000
  0O   2pz        0.602787 -0.000000  0.000000  1.044329  0.000000  0.000000
  0O   2px       -0.000000 -0.000000 -0.000000  0.000000 -0.874065 -0.170244
  0O   2py       -0.000000 -0.000000  0.638453 -0.000000 -0.000000 -0.000000
  0O   1dz2      -0.151930  0.000000 -0.000000 -0.142197 -0.000000 -0.000000
  0O   1dxz      -0.000000  0.000000 -0.000000  0.000000  0.040393  0.162324
  0O   1dyz       0.000000  0.000000 -0.208206  0.000000  0.000000  0.000000
  0O   1dx2y2     0.032356 -0.000000 -0.000000 -0.123585 -0.000000 -0.000000
  0O   1dxy       0.000000  0.171757 -0.000000  0.000000  0.000000 -0.000000
  1H   1s        -0.273863  0.000000 -0.000000 -0.792070 -0.353844 -0.191582
  1H   2s         0.237617  0.000000 -0.000000 -0.406315 -0.113884 -0.415113
  1H   1pz       -0.510652  0.000000 -0.000000 -0.034934  0.716846  0.518001
  1H   1px       -0.345287  0.000000 -0.000000 -0.347006  0.435917 -0.744060
  1H   1py       -0.000000 -0.672464 -0.742635  0.000000  0.000000  0.000000
  2H   1s        -0.273863  0.000000 -0.000000 -0.792070  0.353844  0.191582
  2H   2s         0.237617  0.000000 -0.000000 -0.406315  0.113884  0.415113
  2H   1pz       -0.510652  0.000000 -0.000000 -0.034934 -0.716846 -0.518001
  2H   1px        0.345287 -0.000000  0.000000  0.347006  0.435917 -0.744060
  2H   1py        0.000000  0.672464 -0.742635  0.000000  0.000000  0.000000
                     18        19        20        21        22        23   
                   1.95808   2.67433   2.70418   2.88237   3.20244   3.48909
                   0.00000   0.00000   0.00000   0.00000   0.00000   0.00000
                  --------  --------  --------  --------  --------  --------
  0O   1s         0.220864  0.000000  0.000000  0.080978  0.188367 -0.000000
  0O   2s         0.600719  0.000000  0.000000  0.154856  0.267004 -0.000000
  0O   3s         0.857273  0.000000  0.000000 -0.436057 -2.365902  0.000000
  0O   1pz        0.590817  0.000000  0.000000  0.013708 -0.373288  0.000000
  0O   1px        0.000000 -0.000000 -0.000000 -0.000000 -0.000000 -0.426374
  0O   1py        0.000000 -0.016138 -0.000000 -0.000000 -0.000000  0.000000
  0O   2pz        0.204434  0.000000  0.000000 -0.502286 -1.016096  0.000000
  0O   2px       -0.000000 -0.000000 -0.000000 -0.000000 -0.000000 -1.171644
  0O   2py       -0.000000  0.330893  0.000000  0.000000  0.000000 -0.000000
  0O   1dz2      -0.057024  0.000000  0.000000 -1.055159 -0.236334  0.000000
  0O   1dxz       0.000000 -0.000000 -0.000000 -0.000000 -0.000000 -1.317961
  0O   1dyz       0.000000  1.031740  0.000000  0.000000  0.000000 -0.000000
  0O   1dx2y2    -0.243901  0.000000  0.000000  0.268099 -1.120662  0.000000
  0O   1dxy       0.000000 -0.000000  1.052854  0.000000  0.000000 -0.000000
  1H   1s        -0.398684 -0.000000 -0.000000  0.243753  1.229393 -1.043351
  1H   2s        -0.204140  0.000000  0.000000  0.024376  0.220519 -0.326849
  1H   1pz        0.557104  0.000000  0.000000  0.347996 -0.496691  0.530849
  1H   1px       -0.728436 -0.000000 -0.000000  0.329365  0.657947 -0.615862
  1H   1py        0.000000 -0.422932  0.382707 -0.000000 -0.000000  0.000000
  2H   1s        -0.398684 -0.000000 -0.000000  0.243753  1.229393  1.043351
  2H   2s        -0.204140  0.000000  0.000000  0.024376  0.220519  0.326849
  2H   1pz        0.557104  0.000000  0.000000  0.347996 -0.496691 -0.530849
  2H   1px        0.728436  0.000000  0.000000 -0.329365 -0.657947 -0.615862
  2H   1py        0.000000 -0.422932 -0.382707 -0.000000 -0.000000  0.000000
             **** ENERGY FILE WAS UPDATED (water.en.tmp) ****
Finished Guess after   0.0 sec
Maximum memory used throughout the entire GUESS-calculation: 5.5 MB

-------------------------------------------------------------------------------------------
                                      ORCA LEAN-SCF
                              memory conserving SCF solver
-------------------------------------------------------------------------------------------

----------------------------------------D-I-I-S--------------------------------------------
Iteration    Energy (Eh)           Delta-E    RMSDP     MaxDP     DIISErr   Damp  Time(sec)
-------------------------------------------------------------------------------------------
               ***  Starting incremental Fock matrix formation  ***
    1    -76.2991858213340493     0.00e+00  1.37e-02  9.81e-02  3.10e-01  0.700   0.0

                         ----------------------------
                         !        ITERATION     0   !
                         ----------------------------
   Total Energy        :     -76.299185821334 Eh
   Energy Change       :      76.299185821334 Eh
   MAX-DP              :       0.098121751798
   RMS-DP              :       0.013739563829
   Actual Damping      :       0.7000
   Actual Level Shift  :       0.2500 Eh
   alpha HOMO          :      -0.0324 Eh
   alpha LUMO          :       0.3134 Eh
   Int. Num. El.       :     9.99999686 (UP=    4.99999843 DN=    4.99999843)
   Exchange            :    -9.28292243 Eh
   Correlation         :    -0.34840153 Eh
   DIIS-Error          :       0.310275029771

    2    -76.3508073095552362    -5.16e-02  7.40e-03  5.26e-02  1.09e-01  0.700   0.0

                         ----------------------------
                         !        ITERATION     1   !
                         ----------------------------
   Total Energy        :     -76.350807309555 Eh
   Energy Change       :       0.051621488221 Eh
   MAX-DP              :       0.052633529388
   RMS-DP              :       0.007402272142
   Actual Damping      :       0.7000
   Actual Level Shift  :       0.2500 Eh
   alpha HOMO          :      -0.1523 Eh
   alpha LUMO          :       0.2884 Eh
   Int. Num. El.       :     9.99999694 (UP=    4.99999847 DN=    4.99999847)
   Exchange            :    -9.09001431 Eh
   Correlation         :    -0.34314348 Eh
   DIIS-Error          :       0.109279580121

                               ***Turning on AO-DIIS***
    3    -76.3650613141754491    -1.43e-02  1.95e-03  1.12e-02  1.21e-02  0.700   0.0

                         ----------------------------
                         !        ITERATION     2   !
                         ----------------------------
   Total Energy        :     -76.365061314175 Eh
   Energy Change       :       0.014254004620 Eh
   MAX-DP              :       0.011228492726
   RMS-DP              :       0.001952392083
   Actual Damping      :       0.7000
   Actual Level Shift  :       0.2500 Eh
   alpha HOMO          :      -0.2219 Eh
   alpha LUMO          :       0.2718 Eh
   Int. Num. El.       :     9.99999693 (UP=    4.99999847 DN=    4.99999847)
   Exchange            :    -8.99682573 Eh
   Correlation         :    -0.34041077 Eh
   DIIS-Error          :       0.012131659795
   DIIS coefficients:
     -0.00565  -0.08528   1.09092

    4    -76.3748722876171513    -9.81e-03  2.26e-03  1.49e-02  1.37e-02  0.000   0.0

                         ----------------------------
                         !        ITERATION     3   !
                         ----------------------------
   Total Energy        :     -76.374872287617 Eh
   Energy Change       :       0.009810973442 Eh
   MAX-DP              :       0.014876674067
   RMS-DP              :       0.002260646002
   Actual Damping      :       0.0000
   Actual Level Shift  :       0.2500 Eh
   alpha HOMO          :      -0.2220 Eh
   alpha LUMO          :       0.2729 Eh
   Int. Num. El.       :     9.99999692 (UP=    4.99999846 DN=    4.99999846)
   Exchange            :    -8.98271267 Eh
   Correlation         :    -0.33993394 Eh
   DIIS-Error          :       0.013654795277
   DIIS coefficients:
      0.03387   0.06622  -0.65114   1.55105

    5    -76.3987139277390241    -2.38e-02  9.84e-04  5.32e-03  9.52e-03  0.000   0.0

                         ----------------------------
                         !        ITERATION     4   !
                         ----------------------------
   Total Energy        :     -76.398713927739 Eh
   Energy Change       :       0.023841640122 Eh
   MAX-DP              :       0.005318292641
   RMS-DP              :       0.000984315938
   Actual Damping      :       0.0000
   Actual Level Shift  :       0.2500 Eh
   alpha HOMO          :      -0.2208 Eh
   alpha LUMO          :       0.2736 Eh
   Int. Num. El.       :     9.99999693 (UP=    4.99999846 DN=    4.99999846)
   Exchange            :    -8.98470909 Eh
   Correlation         :    -0.33990312 Eh
   DIIS-Error          :       0.009523798043
   DIIS coefficients:
      0.00654   0.02816   0.24158  -0.14304   0.86676

                              *** Initializing SOSCF ***
---------------------------------------S-O-S-C-F--------------------------------------
Iteration    Energy (Eh)           Delta-E    RMSDP     MaxDP     MaxGrad    Time(sec)
--------------------------------------------------------------------------------------
    6    -76.3988680726276925    -1.54e-04  3.48e-04  2.54e-03  1.96e-03     0.0

                         ----------------------------
                         !        ITERATION     5   !
                         ----------------------------
   Total Energy        :     -76.398868072628 Eh
   Energy Change       :       0.000154144889 Eh
   MAX-DP              :       0.002544927226
   RMS-DP              :       0.000347633726
   Orbital gradient    :       0.001964638736
   Orbital Rotation    :       0.001964638736
   alpha HOMO          :      -0.2215 Eh
   alpha LUMO          :       0.0235 Eh
   Int. Num. El.       :     9.99999695 (UP=    4.99999848 DN=    4.99999848)
   Exchange            :    -8.99150353 Eh
   Correlation         :    -0.34013887 Eh

               *** Restarting incremental Fock matrix formation ***
    7    -76.3988795508062850    -1.15e-05  2.63e-04  2.21e-03  5.14e-04     0.0

                         ----------------------------
                         !        ITERATION     6   !
                         ----------------------------
   Total Energy        :     -76.398879550806 Eh
   Energy Change       :       0.000011478179 Eh
   MAX-DP              :       0.002205326692
   RMS-DP              :       0.000263349388
   Orbital gradient    :       0.000514323609
   Orbital Rotation    :       0.001575359049
   alpha HOMO          :      -0.2215 Eh
   alpha LUMO          :       0.0235 Eh
   Int. Num. El.       :     9.99999696 (UP=    4.99999848 DN=    4.99999848)
   Exchange            :    -8.99292477 Eh
   Correlation         :    -0.34019095 Eh

    8    -76.3988800562782728    -5.05e-07  7.94e-05  6.13e-04  5.24e-04     0.0
                 **** Energy Check signals convergence ****

                         ----------------------------
                         !        ITERATION     7   !
                         ----------------------------
   Total Energy        :     -76.398880056278 Eh
   Energy Change       :       0.000000505472 Eh
   MAX-DP              :       0.000613087987
   RMS-DP              :       0.000079352486
   Orbital gradient    :       0.000523610147
   Orbital Rotation    :       0.000306375488
   alpha HOMO          :      -0.2215 Eh
   alpha LUMO          :       0.0235 Eh
   Int. Num. El.       :     9.99999697 (UP=    4.99999849 DN=    4.99999849)
   Exchange            :    -8.99414020 Eh
   Correlation         :    -0.34023267 Eh


               *****************************************************
               *                     SUCCESS                       *
               *           SCF CONVERGED AFTER   8 CYCLES          *
               *****************************************************

             **** ENERGY FILE WAS UPDATED (water.en.tmp) ****

----------------
TOTAL SCF ENERGY
----------------

Total Energy       :        -76.39888086717821 Eh           -2078.91924 eV

Components:
Nuclear Repulsion  :          9.03923544423547 Eh             245.97010 eV
Electronic Energy  :        -85.43811631141368 Eh           -2324.88934 eV
One Electron Energy:       -122.92120479074453 Eh           -3344.85603 eV
Two Electron Energy:         37.48308847933085 Eh            1019.96669 eV

Virial components:
Potential Energy   :       -152.41245714800209 Eh           -4147.35381 eV
Kinetic Energy     :         76.01357628082388 Eh            2068.43457 eV
Virial Ratio       :          2.00506889170601

DFT components:
N(Alpha)           :        4.999998486222 electrons
N(Beta)            :        4.999998486222 electrons
N(Total)           :        9.999996972444 electrons
E(X)               :       -8.993054620040 Eh       
E(C)               :       -0.340201456206 Eh       
E(XC)              :       -9.333256076247 Eh       

---------------
SCF CONVERGENCE
---------------

  Last Energy change         ...    5.0547e-07  Tolerance :   1.0000e-06
  Last MAX-Density change    ...    6.1309e-04  Tolerance :   1.0000e-05
  Last RMS-Density change    ...    7.9352e-05  Tolerance :   1.0000e-06
  Last DIIS Error            ...    1.9646e-03  Tolerance :   1.0000e-06
  Last Orbital Gradient      ...    5.2361e-04  Tolerance :   5.0000e-05
  Last Orbital Rotation      ...    3.0638e-04  Tolerance :   5.0000e-05


----------------
ORBITAL ENERGIES
----------------

  NO   OCC          E(Eh)            E(eV) 
   0   2.0000     -18.770144      -510.7616 
   1   2.0000      -0.889981       -24.2176 
   2   2.0000      -0.443942       -12.0803 
   3   2.0000      -0.301516        -8.2047 
   4   2.0000      -0.220117        -5.9897 
   5   0.0000       0.023825         0.6483 
   6   0.0000       0.098862         2.6902 
   7   0.0000       0.503355        13.6970 
   8   0.0000       0.560350        15.2479 
   9   0.0000       0.853490        23.2246 
  10   0.0000       0.862633        23.4734 
  11   0.0000       0.945856        25.7381 
  12   0.0000       1.146284        31.1920 
  13   0.0000       1.190611        32.3982 
  14   0.0000       1.369566        37.2678 
  15   0.0000       1.537943        41.8496 
  16   0.0000       1.614093        43.9217 
  17   0.0000       2.011629        54.7392 
  18   0.0000       2.051704        55.8297 
  19   0.0000       2.840887        77.3045 
  20   0.0000       2.867647        78.0326 
  21   0.0000       3.038443        82.6802 
  22   0.0000       3.356946        91.3472 
  23   0.0000       3.642693        99.1227 
------------------------------
MOLECULAR ORBITALS (RHF, ROHF)
------------------------------
                      0         1         2         3         4         5   
                 -18.77014  -0.88998  -0.44394  -0.30152  -0.22012   0.02382
                   2.00000   2.00000   2.00000   2.00000   2.00000   0.00000
                  --------  --------  --------  --------  --------  --------
  0O   1s        -1.003584 -0.004738 -0.000000  0.009047  0.000000  0.025528
  0O   2s        -0.008822  0.442863 -0.000000 -0.172301  0.000000 -0.139353
  0O   3s         0.008046  0.346804  0.000000 -0.392365 -0.000000 -0.866454
  0O   1pz       -0.001968  0.125407  0.000000  0.541459 -0.000000 -0.269866
  0O   1px        0.000000  0.000000 -0.505567  0.000000 -0.000000 -0.000000
  0O   1py        0.000000 -0.000000 -0.000000 -0.000000 -0.637772  0.000000
  0O   2pz        0.000954 -0.005509  0.000000  0.344068 -0.000000 -0.316384
  0O   2px       -0.000000 -0.000000 -0.194264  0.000000 -0.000000 -0.000000
  0O   2py       -0.000000  0.000000 -0.000000 -0.000000 -0.487919  0.000000
  0O   1dz2      -0.000008  0.002758  0.000000  0.018254 -0.000000 -0.008962
  0O   1dxz      -0.000000 -0.000000 -0.022162  0.000000 -0.000000 -0.000000
  0O   1dyz      -0.000000 -0.000000 -0.000000 -0.000000 -0.019293  0.000000
  0O   1dx2y2    -0.000428  0.004713  0.000000  0.001210 -0.000000 -0.003009
  0O   1dxy      -0.000000 -0.000000  0.000000  0.000000 -0.000000  0.000000
  1H   1s         0.000325  0.205047  0.328470  0.203942 -0.000000  0.123543
  1H   2s        -0.001128  0.017549  0.123224  0.055043 -0.000000  0.745266
  1H   1pz       -0.000884 -0.018744 -0.027025  0.016316  0.000000 -0.001594
  1H   1px        0.000918  0.036346  0.013132  0.022931 -0.000000 -0.006719
  1H   1py       -0.000000 -0.000000  0.000000  0.000000 -0.032822 -0.000000
  2H   1s         0.000325  0.205047 -0.328470  0.203942 -0.000000  0.123543
  2H   2s        -0.001128  0.017549 -0.123224  0.055043  0.000000  0.745266
  2H   1pz       -0.000884 -0.018744  0.027025  0.016316 -0.000000 -0.001594
  2H   1px       -0.000918 -0.036346  0.013132 -0.022931 -0.000000  0.006719
  2H   1py        0.000000 -0.000000 -0.000000  0.000000 -0.032822 -0.000000
                      6         7         8         9        10        11   
                   0.09886   0.50336   0.56035   0.85349   0.86263   0.94586
                   0.00000   0.00000   0.00000   0.00000   0.00000   0.00000
                  --------  --------  --------  --------  --------  --------
  0O   1s         0.000000  0.000000 -0.070353  0.021765  0.000000  0.000000
  0O   2s         0.000000  0.000000 -0.242726  0.169953 -0.000000  0.000000
  0O   3s        -0.000000 -0.000000  0.357289  0.577213 -0.000000 -0.000000
  0O   1pz        0.000000  0.000000 -0.399478 -0.744062  0.000000 -0.000000
  0O   1px       -0.397041  0.293096  0.000000 -0.000000  0.000000  0.756826
  0O   1py       -0.000000 -0.000000  0.000000 -0.000000 -0.963069  0.000000
  0O   2pz       -0.000000 -0.000000  0.072410  1.235823 -0.000000  0.000000
  0O   2px       -0.598508  0.284187  0.000000  0.000000 -0.000000 -1.750985
  0O   2py        0.000000  0.000000 -0.000000  0.000000  0.998191 -0.000000
  0O   1dz2      -0.000000 -0.000000  0.002131  0.015094 -0.000000  0.000000
  0O   1dxz      -0.007882 -0.101793 -0.000000 -0.000000 -0.000000 -0.014530
  0O   1dyz       0.000000  0.000000  0.000000 -0.000000 -0.001450 -0.000000
  0O   1dx2y2    -0.000000 -0.000000  0.091685 -0.022002  0.000000 -0.000000
  0O   1dxy      -0.000000 -0.000000  0.000000  0.000000  0.000000  0.000000
  1H   1s        -0.127589  0.936440  0.809719 -0.541819 -0.000000 -0.363982
  1H   2s        -1.257121 -0.918911 -0.633367 -0.066866 -0.000000 -0.828591
  1H   1pz       -0.006542  0.123649  0.057616  0.233630  0.000000  0.123540
  1H   1px        0.001677 -0.054033 -0.233966 -0.015535 -0.000000 -0.246851
  1H   1py       -0.000000 -0.000000  0.000000  0.000000  0.044160 -0.000000
  2H   1s         0.127589 -0.936440  0.809719 -0.541819  0.000000  0.363982
  2H   2s         1.257121  0.918911 -0.633367 -0.066866  0.000000  0.828591
  2H   1pz        0.006542 -0.123649  0.057616  0.233630 -0.000000 -0.123540
  2H   1px        0.001677 -0.054033  0.233966  0.015535 -0.000000 -0.246851
  2H   1py       -0.000000 -0.000000  0.000000  0.000000  0.044160 -0.000000
                     12        13        14        15        16        17   
                   1.14628   1.19061   1.36957   1.53794   1.61409   2.01163
                   0.00000   0.00000   0.00000   0.00000   0.00000   0.00000
                  --------  --------  --------  --------  --------  --------
  0O   1s         0.202938  0.000000 -0.000000 -0.735538 -0.000000 -0.000000
  0O   2s         0.531621  0.000000 -0.000000 -1.622544 -0.000000 -0.000000
  0O   3s        -0.467744 -0.000000  0.000000  2.985868  0.000000 -0.000000
  0O   1pz       -0.134710 -0.000000  0.000000  0.045155 -0.000000 -0.000000
  0O   1px       -0.000000  0.000000  0.000000  0.000000  0.003708 -0.741113
  0O   1py        0.000000 -0.000000  0.031733 -0.000000  0.000000  0.000000
  0O   2pz        0.744866 -0.000000  0.000000  1.000100  0.000000  0.000000
  0O   2px        0.000000 -0.000000 -0.000000  0.000000 -0.897968 -0.186755
  0O   2py       -0.000000  0.000000 -0.664192  0.000000 -0.000000 -0.000000
  0O   1dz2      -0.130011  0.000000 -0.000000 -0.120399 -0.000000 -0.000000
  0O   1dxz       0.000000  0.000000  0.000000 -0.000000  0.034419  0.134090
  0O   1dyz      -0.000000 -0.000000  0.173391 -0.000000  0.000000  0.000000
  0O   1dx2y2     0.021286 -0.000000 -0.000000 -0.112246 -0.000000  0.000000
  0O   1dxy      -0.000000 -0.143210 -0.000000 -0.000000 -0.000000 -0.000000
  1H   1s        -0.336698  0.000000 -0.000000 -0.787542 -0.368642 -0.239382
  1H   2s         0.202882 -0.000000 -0.000000 -0.398469 -0.110922 -0.396902
  1H   1pz       -0.508390 -0.000000 -0.000000 -0.021602  0.709924  0.536136
  1H   1px       -0.364799  0.000000 -0.000000 -0.340380  0.444190 -0.744548
  1H   1py       -0.000000  0.682571  0.755701 -0.000000  0.000000  0.000000
  2H   1s        -0.336698  0.000000 -0.000000 -0.787542  0.368642  0.239382
  2H   2s         0.202882  0.000000  0.000000 -0.398469  0.110922  0.396902
  2H   1pz       -0.508390  0.000000  0.000000 -0.021602 -0.709924 -0.536136
  2H   1px        0.364799 -0.000000  0.000000  0.340380  0.444190 -0.744548
  2H   1py       -0.000000 -0.682571  0.755701 -0.000000  0.000000  0.000000
                     18        19        20        21        22        23   
                   2.05170   2.84089   2.86765   3.03844   3.35695   3.64269
                   0.00000   0.00000   0.00000   0.00000   0.00000   0.00000
                  --------  --------  --------  --------  --------  --------
  0O   1s         0.214058  0.000000 -0.000000 -0.076174  0.186696 -0.000000
  0O   2s         0.598154  0.000000 -0.000000 -0.146828  0.268596 -0.000000
  0O   3s         0.942863 -0.000000 -0.000000  0.394795 -2.294321  0.000000
  0O   1pz        0.621868  0.000000 -0.000000 -0.024195 -0.363047  0.000000
  0O   1px       -0.000000  0.000000  0.000000  0.000000 -0.000000 -0.415597
  0O   1py       -0.000000  0.022725  0.000000 -0.000000  0.000000  0.000000
  0O   2pz        0.241666  0.000000 -0.000000  0.472507 -0.985597  0.000000
  0O   2px       -0.000000 -0.000000  0.000000 -0.000000 -0.000000 -1.145088
  0O   2py        0.000000 -0.312781 -0.000000  0.000000 -0.000000 -0.000000
  0O   1dz2      -0.046902  0.000000 -0.000000  1.058683 -0.247310  0.000000
  0O   1dxz       0.000000  0.000000  0.000000  0.000000 -0.000000 -1.322001
  0O   1dyz      -0.000000 -1.038074 -0.000000  0.000000 -0.000000 -0.000000
  0O   1dx2y2    -0.211919  0.000000 -0.000000 -0.274857 -1.127815  0.000000
  0O   1dxy      -0.000000 -0.000000  1.057116  0.000000 -0.000000  0.000000
  1H   1s        -0.464838  0.000000  0.000000 -0.220050  1.200726 -1.029224
  1H   2s        -0.201671 -0.000000 -0.000000 -0.021738  0.208415 -0.311124
  1H   1pz        0.565796 -0.000000 -0.000000 -0.339393 -0.474056  0.514897
  1H   1px       -0.746872  0.000000  0.000000 -0.309342  0.631990 -0.597345
  1H   1py        0.000000  0.397732  0.364374 -0.000000 -0.000000  0.000000
  2H   1s        -0.464838 -0.000000  0.000000 -0.220050  1.200726  1.029224
  2H   2s        -0.201671  0.000000  0.000000 -0.021738  0.208415  0.311124
  2H   1pz        0.565796 -0.000000 -0.000000 -0.339393 -0.474056 -0.514897
  2H   1px        0.746872  0.000000 -0.000000  0.309342 -0.631990 -0.597345
  2H   1py       -0.000000  0.397732 -0.364374 -0.000000  0.000000  0.000000


-------
DENSITY
-------
                  0          1          2          3          4          5    
      0       2.014569   0.010393  -0.026535   0.012559   0.000000  -0.000000
      1       0.010393   0.451787   0.442241  -0.075477   0.000000  -0.000000
      2      -0.026535   0.442241   0.548576  -0.337948  -0.000000   0.000000
      3       0.012559  -0.075477  -0.337948   0.617818  -0.000000   0.000000
      4       0.000000   0.000000  -0.000000  -0.000000   0.511195   0.000000
      5      -0.000000  -0.000000   0.000000   0.000000   0.000000   0.813506
      6       0.004364  -0.123462  -0.273806   0.371212  -0.000000   0.000000
      7       0.000000  -0.000000  -0.000000   0.000000   0.196427   0.000000
      8      -0.000000  -0.000000   0.000000   0.000000   0.000000   0.622362
      9       0.000320  -0.003847  -0.012412   0.020460  -0.000000   0.000000
     10       0.000000  -0.000000  -0.000000   0.000000   0.022409   0.000000
     11      -0.000000  -0.000000   0.000000  -0.000000   0.000000   0.024609
     12       0.000836   0.003765   0.002313   0.002494  -0.000000   0.000000
     13       0.000000  -0.000000  -0.000000   0.000000  -0.000000   0.000000
     14       0.001095   0.111331  -0.017812   0.272279  -0.332128  -0.000000
     15       0.003094  -0.003405  -0.031040   0.064013  -0.124596   0.000000
     16       0.002247  -0.022209  -0.025819   0.012971   0.027326   0.000000
     17      -0.001771   0.024274   0.007230   0.033945  -0.013279   0.000000
     18      -0.000000  -0.000000   0.000000   0.000000   0.000000   0.041866
     19       0.001095   0.111331  -0.017812   0.272279   0.332128   0.000000
     20       0.003094  -0.003405  -0.031040   0.064013   0.124596  -0.000000
     21       0.002247  -0.022209  -0.025819   0.012971  -0.027326   0.000000
     22       0.001771  -0.024274  -0.007230  -0.033945  -0.013279   0.000000
     23      -0.000000  -0.000000   0.000000   0.000000   0.000000   0.041866
                  6          7          8          9         10         11    
      0       0.004364   0.000000  -0.000000   0.000320   0.000000  -0.000000
      1      -0.123462  -0.000000  -0.000000  -0.003847  -0.000000  -0.000000
      2      -0.273806  -0.000000   0.000000  -0.012412  -0.000000   0.000000
      3       0.371212   0.000000   0.000000   0.020460   0.000000  -0.000000
      4      -0.000000   0.196427   0.000000  -0.000000   0.022409   0.000000
      5       0.000000   0.000000   0.622362   0.000000   0.000000   0.024609
      6       0.236828   0.000000   0.000000   0.012531   0.000000   0.000000
      7       0.000000   0.075477   0.000000   0.000000   0.008611   0.000000
      8       0.000000   0.000000   0.476130   0.000000   0.000000   0.018826
      9       0.012531   0.000000   0.000000   0.000682   0.000000  -0.000000
     10       0.000000   0.008611   0.000000   0.000000   0.000982   0.000000
     11       0.000000   0.000000   0.018826  -0.000000   0.000000   0.000744
     12       0.000780  -0.000000   0.000000   0.000070  -0.000000   0.000000
     13       0.000000  -0.000000   0.000000   0.000000  -0.000000   0.000000
     14       0.138081  -0.127620  -0.000000   0.008577  -0.014559  -0.000000
     15       0.037681  -0.047876   0.000000   0.002106  -0.005462   0.000000
     16       0.011433   0.010500  -0.000000   0.000492   0.001198  -0.000000
     17       0.015381  -0.005102   0.000000   0.001038  -0.000582  -0.000000
     18       0.000000   0.000000   0.032029   0.000000   0.000000   0.001266
     19       0.138081   0.127620   0.000000   0.008577   0.014559   0.000000
     20       0.037681   0.047876  -0.000000   0.002106   0.005462  -0.000000
     21       0.011433  -0.010500   0.000000   0.000492  -0.001198   0.000000
     22      -0.015381  -0.005102   0.000000  -0.001038  -0.000582   0.000000
     23       0.000000   0.000000   0.032029   0.000000   0.000000   0.001266
                 12         13         14         15         16         17    
      0       0.000836   0.000000   0.001095   0.003094   0.002247  -0.001771
      1       0.003765  -0.000000   0.111331  -0.003405  -0.022209   0.024274
      2       0.002313  -0.000000  -0.017812  -0.031040  -0.025819   0.007230
      3       0.002494   0.000000   0.272279   0.064013   0.012971   0.033945
      4      -0.000000  -0.000000  -0.332128  -0.124596   0.027326  -0.013279
      5       0.000000   0.000000  -0.000000   0.000000   0.000000   0.000000
      6       0.000780   0.000000   0.138081   0.037681   0.011433   0.015381
      7      -0.000000  -0.000000  -0.127620  -0.047876   0.010500  -0.005102
      8       0.000000   0.000000  -0.000000   0.000000  -0.000000   0.000000
      9       0.000070   0.000000   0.008577   0.002106   0.000492   0.001038
     10      -0.000000  -0.000000  -0.014559  -0.005462   0.001198  -0.000582
     11       0.000000   0.000000  -0.000000   0.000000  -0.000000  -0.000000
     12       0.000048  -0.000000   0.002426   0.000300  -0.000136   0.000397
     13      -0.000000   0.000000   0.000000   0.000000  -0.000000   0.000000
     14       0.002426   0.000000   0.383059   0.110598  -0.018786   0.032886
     15       0.000300   0.000000   0.110598   0.037046  -0.005520   0.007034
     16      -0.000136  -0.000000  -0.018786  -0.005520   0.002697  -0.001326
     17       0.000397   0.000000   0.032886   0.007034  -0.001326   0.004040
     18       0.000000   0.000000   0.000000   0.000000   0.000000   0.000000
     19       0.002426  -0.000000  -0.048512  -0.051304   0.016722   0.015632
     20       0.000300  -0.000000  -0.051304  -0.023690   0.007801   0.000562
     21      -0.000136   0.000000   0.016722   0.007801  -0.000224   0.000094
     22      -0.000397   0.000000  -0.015632  -0.000562  -0.000094  -0.003350
     23       0.000000   0.000000  -0.000000   0.000000   0.000000   0.000000
                 18         19         20         21         22         23    
      0      -0.000000   0.001095   0.003094   0.002247   0.001771  -0.000000
      1      -0.000000   0.111331  -0.003405  -0.022209  -0.024274  -0.000000
      2       0.000000  -0.017812  -0.031040  -0.025819  -0.007230   0.000000
      3       0.000000   0.272279   0.064013   0.012971  -0.033945   0.000000
      4       0.000000   0.332128   0.124596  -0.027326  -0.013279   0.000000
      5       0.041866   0.000000  -0.000000   0.000000   0.000000   0.041866
      6       0.000000   0.138081   0.037681   0.011433  -0.015381   0.000000
      7       0.000000   0.127620   0.047876  -0.010500  -0.005102   0.000000
      8       0.032029   0.000000  -0.000000   0.000000   0.000000   0.032029
      9       0.000000   0.008577   0.002106   0.000492  -0.001038   0.000000
     10       0.000000   0.014559   0.005462  -0.001198  -0.000582   0.000000
     11       0.001266   0.000000  -0.000000   0.000000   0.000000   0.001266
     12       0.000000   0.002426   0.000300  -0.000136  -0.000397   0.000000
     13       0.000000  -0.000000  -0.000000   0.000000   0.000000   0.000000
     14       0.000000  -0.048512  -0.051304   0.016722  -0.015632  -0.000000
     15       0.000000  -0.051304  -0.023690   0.007801  -0.000562   0.000000
     16       0.000000   0.016722   0.007801  -0.000224  -0.000094   0.000000
     17       0.000000   0.015632   0.000562   0.000094  -0.003350   0.000000
     18       0.002155   0.000000  -0.000000   0.000000   0.000000   0.002155
     19       0.000000   0.383059   0.110598  -0.018786  -0.032886   0.000000
     20      -0.000000   0.110598   0.037046  -0.005520  -0.007034  -0.000000
     21       0.000000  -0.018786  -0.005520   0.002697   0.001326   0.000000
     22       0.000000  -0.032886  -0.007034   0.001326   0.004040   0.000000
     23       0.002155   0.000000  -0.000000   0.000000   0.000000   0.002155



                    ********************************
                    * MULLIKEN POPULATION ANALYSIS *
                    ********************************

-----------------------
MULLIKEN ATOMIC CHARGES
-----------------------
   0 O :   -0.241550
   1 H :    0.120775
   2 H :    0.120775
Sum of atomic charges:   -0.0000000

------------------------
MULLIKEN ORBITAL CHARGES
------------------------
The uncorrected charge=density diagonal is given in parenthesis)
   0:   0O   1s           2.007140 (  2.014569)
   1:   0O   2s           0.845847 (  0.451787)
   2:   0O   3s           0.816574 (  0.548576)
   3:   0O   1pz          0.923625 (  0.617818)
   4:   0O   1px          0.792073 (  0.511195)
   5:   0O   1py          1.141053 (  0.813506)
   6:   0O   2pz          0.560375 (  0.236828)
   7:   0O   2px          0.331677 (  0.075477)
   8:   0O   2py          0.812618 (  0.476130)
   9:   0O   1dz2         0.001575 (  0.000682)
  10:   0O   1dxz         0.007088 (  0.000982)
  11:   0O   1dyz         0.001231 (  0.000744)
  12:   0O   1dx2y2       0.000672 (  0.000048)
  13:   0O   1dxy         0.000000 (  0.000000)
  14:   1H   1s           0.697270 (  0.383059)
  15:   1H   2s           0.100939 (  0.037046)
  16:   1H   1pz          0.026249 (  0.002697)
  17:   1H   1px          0.032219 (  0.004040)
  18:   1H   1py          0.022549 (  0.002155)
  19:   2H   1s           0.697270 (  0.383059)
  20:   2H   2s           0.100939 (  0.037046)
  21:   2H   1pz          0.026249 (  0.002697)
  22:   2H   1px          0.032219 (  0.004040)
  23:   2H   1py          0.022549 (  0.002155)
Sum of orbital charges :   10.0000000

--------------------------------
MULLIKEN REDUCED ORBITAL CHARGES
--------------------------------
  0 O s       :     3.669562  s :     3.669562
      pz      :     1.484000  p :     4.561422
      px      :     1.123751
      py      :     1.953671
      dz2     :     0.001575  d :     0.010566
      dxz     :     0.007088
      dyz     :     0.001231
      dx2y2   :     0.000672
      dxy     :     0.000000

  1 H s       :     0.798208  s :     0.798208
      pz      :     0.026249  p :     0.081017
      px      :     0.032219
      py      :     0.022549

  2 H s       :     0.798208  s :     0.798208
      pz      :     0.026249  p :     0.081017
      px      :     0.032219
      py      :     0.022549


------------------------
MULLIKEN OVERLAP CHARGES
------------------------
B(  0-O ,  1-H ) :   0.6882 B(  0-O ,  2-H ) :   0.6882 B(  1-H ,  2-H ) :  -0.0907 


-----------------------------------
MULLIKEN ORBITAL POPULATIONS PER MO
-----------------------------------
THRESHOLD FOR PRINTING IS 0.1%%
                      0         1         2         3         4         5   
                 -18.77014  -0.88998  -0.44394  -0.30152  -0.22012   0.02382
                   2.00000   2.00000   2.00000   2.00000   2.00000   0.00000
                  --------  --------  --------  --------  --------  --------
  0O   1s            100.4       0.0       0.0      -0.0      -0.0       0.0
  0O   2s             -0.2      37.3       0.0       5.2      -0.0       3.0
  0O   3s             -0.2      31.7      -0.0       9.3      -0.0      -9.8
  0O   1pz             0.0       2.7       0.0      43.5       0.0       7.8
  0O   1px             0.0       0.0      39.6       0.0       0.0       0.0
  0O   1py             0.0       0.0       0.0       0.0      57.1       0.0
  0O   2pz            -0.0      -0.1       0.0      28.1       0.0      -0.2
  0O   2px            -0.0      -0.0      16.6       0.0      -0.0      -0.0
  0O   2py             0.0      -0.0       0.0       0.0      40.6       0.0
  0O   1dxz           -0.0       0.0       0.4       0.0      -0.0      -0.0
  1H   1s             -0.0      11.5      17.8       5.6       0.0       3.1
  1H   2s              0.0       1.1       3.4       0.6      -0.0      46.3
  1H   1pz            -0.0       0.4       0.6       0.3      -0.0      -0.0
  1H   1px            -0.0       1.3       0.0       0.3      -0.0       0.2
  1H   1py             0.0       0.0      -0.0      -0.0       1.1      -0.0
  2H   1s             -0.0      11.5      17.8       5.6      -0.0       3.1
  2H   2s              0.0       1.1       3.4       0.6       0.0      46.3
  2H   1pz            -0.0       0.4       0.6       0.3      -0.0      -0.0
  2H   1px            -0.0       1.3       0.0       0.3      -0.0       0.2
  2H   1py             0.0       0.0       0.0      -0.0       1.1      -0.0

                      6         7         8         9        10        11   
                   0.09886   0.50336   0.56035   0.85349   0.86263   0.94586
                   0.00000   0.00000   0.00000   0.00000   0.00000   0.00000
                  --------  --------  --------  --------  --------  --------
  0O   2s              0.0       0.0       3.0       2.0       0.0       0.0
  0O   3s              0.0       0.0      -0.8      -2.0       0.0       0.0
  0O   1pz             0.0       0.0      12.1      25.6       0.0       0.0
  0O   1px            17.4       8.0       0.0       0.0       0.0      24.2
  0O   1py            -0.0       0.0       0.0       0.0      43.0       0.0
  0O   2pz             0.0       0.0       0.7      60.1       0.0       0.0
  0O   2px            -5.9       4.1       0.0       0.0       0.0      83.9
  0O   2py             0.0       0.0       0.0       0.0      54.8       0.0
  0O   1dz2           -0.0      -0.0      -0.0       0.1       0.0       0.0
  0O   1dxz           -0.1       4.0       0.0       0.0      -0.0      -0.4
  0O   1dx2y2         -0.0       0.0       2.3       0.5       0.0       0.0
  1H   1s              2.7      28.4      25.8      -0.1      -0.0      -3.3
  1H   2s             41.3      10.0       7.4      -0.2      -0.0      -4.5
  1H   1pz             0.2       3.3       0.3       7.4      -0.0      -1.4
  1H   1px             0.0       0.2       8.0      -0.3       0.0       5.4
  1H   1py            -0.0      -0.0      -0.0       0.0       1.1       0.0
  2H   1s              2.7      28.4      25.8      -0.1      -0.0      -3.3
  2H   2s             41.3      10.0       7.4      -0.2      -0.0      -4.5
  2H   1pz             0.2       3.3       0.3       7.4       0.0      -1.4
  2H   1px             0.0       0.2       8.0      -0.3       0.0       5.4
  2H   1py            -0.0      -0.0      -0.0       0.0       1.1       0.0

                     12        13        14        15        16        17   
                   1.14628   1.19061   1.36957   1.53794   1.61409   2.01163
                   0.00000   0.00000   0.00000   0.00000   0.00000   0.00000
                  --------  --------  --------  --------  --------  --------
  0O   1s             -0.0      -0.0      -0.0      -0.3      -0.0      -0.0
  0O   2s              7.1       0.0       0.0      36.2       0.0       0.0
  0O   3s              4.4       0.0       0.0      65.6       0.0      -0.0
  0O   1pz             0.2       0.0       0.0       0.2      -0.0       0.0
  0O   1px             0.0       0.0       0.0       0.0      -0.0       9.9
  0O   2pz            11.1      -0.0       0.0       3.6       0.0       0.0
  0O   2px             0.0       0.0       0.0      -0.0       4.7      -1.7
  0O   2py             0.0       0.0       4.6       0.0       0.0       0.0
  0O   1dz2            6.1       0.0       0.0       3.4       0.0       0.0
  0O   1dxz            0.0       0.0       0.0       0.0       0.3       7.2
  0O   1dyz            0.0       0.0       8.0       0.0       0.0       0.0
  0O   1dx2y2          0.3      -0.0       0.0       3.3       0.0       0.0
  0O   1dxy            0.0       6.7       0.0       0.0       0.0       0.0
  1H   1s              1.5      -0.0      -0.0      -2.6       0.3       0.5
  1H   2s             -0.2       0.0      -0.0      -4.5      -0.2       0.1
  1H   1pz            23.1      -0.0       0.0       0.3      32.0      14.2
  1H   1px            11.2       0.0       0.0       0.8      15.3      27.5
  1H   1py             0.0      46.6      43.7       0.0       0.0       0.0
  2H   1s              1.5      -0.0       0.0      -2.6       0.3       0.5
  2H   2s             -0.2      -0.0       0.0      -4.5      -0.2       0.1
  2H   1pz            23.1       0.0       0.0       0.3      32.0      14.2
  2H   1px            11.2       0.0      -0.0       0.8      15.3      27.5
  2H   1py             0.0      46.6      43.7       0.0       0.0       0.0

                     18        19        20        21        22        23   
                   2.05170   2.84089   2.86765   3.03844   3.35695   3.64269
                   0.00000   0.00000   0.00000   0.00000   0.00000   0.00000
                  --------  --------  --------  --------  --------  --------
  0O   2s              6.4       0.0       0.0       0.1      -0.1       0.0
  0O   3s             -2.9       0.0      -0.0       0.4       4.2       0.0
  0O   1pz             6.6      -0.0       0.0       0.0       1.3       0.0
  0O   1px             0.0       0.0       0.0       0.0       0.0       0.9
  0O   2pz            -1.9      -0.0      -0.0       0.0      -1.3       0.0
  0O   2px            -0.0       0.0       0.0       0.0      -0.0      -1.8
  0O   1dz2            0.5       0.0       0.0      85.9       4.0       0.0
  0O   1dxz            0.0       0.0       0.0       0.0       0.0      88.5
  0O   1dyz            0.0      91.9       0.0       0.0       0.0       0.0
  0O   1dx2y2         10.7       0.0       0.0       5.4      77.4       0.0
  0O   1dxy            0.0       0.0      93.3       0.0       0.0       0.0
  1H   1s              1.6      -0.0      -0.0       0.0       3.6       3.6
  1H   2s              0.1       0.0       0.0      -0.0      -0.5      -0.2
  1H   1pz            14.4      -0.0      -0.0       2.4       1.4       1.3
  1H   1px            24.3      -0.0      -0.0       1.7       2.6       1.5
  1H   1py             0.0       4.1       3.4       0.0       0.0       0.0
  2H   1s              1.6       0.0       0.0       0.0       3.6       3.6
  2H   2s              0.1       0.0       0.0      -0.0      -0.5      -0.2
  2H   1pz            14.4       0.0       0.0       2.4       1.4       1.3
  2H   1px            24.3      -0.0       0.0       1.7       2.6       1.5
  2H   1py             0.0       4.1       3.4       0.0       0.0       0.0



                     *******************************
                     * LOEWDIN POPULATION ANALYSIS *
                     *******************************

----------------------
LOEWDIN ATOMIC CHARGES
----------------------
   0 O :   -0.087490
[...]
  1H   1px             9.4       0.0       0.0       0.1      17.0      22.4
  1H   1py             0.0      45.2      39.2       0.0       0.0       0.0
  2H   1s              1.6       0.0       0.0       0.8       0.7       0.3
  2H   2s              0.3       0.0       0.0       0.0       0.0       0.9
  2H   1pz            20.6       0.0       0.0       1.9      27.2      11.0
  2H   1px             9.4       0.0       0.0       0.1      17.0      22.4
  2H   1py             0.0      45.2      39.2       0.0       0.0       0.0

                     18        19        20        21        22        23   
                   2.05170   2.84089   2.86765   3.03844   3.35695   3.64269
                   0.00000   0.00000   0.00000   0.00000   0.00000   0.00000
                  --------  --------  --------  --------  --------  --------
  0O   1s              0.9       0.0       0.0       0.0       0.0       0.0
  0O   2s             10.9       0.0       0.0       0.1       0.0       0.0
  0O   3s              2.5       0.0       0.0       0.3      12.9       0.0
  0O   1pz             8.4       0.0       0.0       0.0       1.4       0.0
  0O   1px             0.0       0.0       0.0       0.0       0.0       1.8
  0O   2pz             0.2       0.0       0.0       1.5       1.7       0.0
  0O   2px             0.0       0.0       0.0       0.0       0.0       4.6
  0O   2py             0.0       1.2       0.0       0.0       0.0       0.0
  0O   1dz2            0.9       0.0       0.0      80.5       2.8       0.0
  0O   1dxz            0.0       0.0       0.0       0.0       0.0      67.1
  0O   1dyz            0.0      88.7       0.0       0.0       0.0       0.0
  0O   1dx2y2         18.2       0.0       0.0       5.7      59.9       0.0
  0O   1dxy            0.0       0.0      90.4       0.0       0.0       0.0
  1H   1s              0.9       0.0       0.0       0.1       6.6       7.9
  1H   2s              0.2       0.0       0.0       0.0       0.0       0.1
  1H   1pz            10.6       0.0       0.0       3.8       2.0       1.7
  1H   1px            17.3       0.0       0.0       2.0       2.0       3.5
  1H   1py             0.0       5.0       4.8       0.0       0.0       0.0
  2H   1s              0.9       0.0       0.0       0.1       6.6       7.9
  2H   2s              0.2       0.0       0.0       0.0       0.0       0.1
  2H   1pz            10.6       0.0       0.0       3.8       2.0       1.7
  2H   1px            17.3       0.0       0.0       2.0       2.0       3.5
  2H   1py             0.0       5.0       4.8       0.0       0.0       0.0


------------------------------------------
LOEWDIN REDUCED ORBITAL POPULATIONS PER MO
-------------------------------------------
THRESHOLD FOR PRINTING IS 0.1%%
                      0         1         2         3         4         5   
                 -18.77014  -0.88998  -0.44394  -0.30152  -0.22012   0.02382
                   2.00000   2.00000   2.00000   2.00000   2.00000   0.00000
                  --------  --------  --------  --------  --------  --------
 0 O  s              99.2      58.1       0.0      13.3       0.0       8.3
 0 O  pz              0.0       2.4       0.0      75.3       0.0       7.4
 0 O  px              0.0       0.0      61.1       0.0       0.0       0.0
 0 O  py              0.0       0.0       0.0       0.0      94.0       0.0
 0 O  dxz             0.0       0.0       0.8       0.0       0.0       0.0
 0 O  dx2y2           0.0       0.0       0.0       0.1       0.0       0.2
 1 H  s               0.1      15.7      18.1       4.2       0.0      35.4
 1 H  pz              0.1       1.3       0.9       1.1       0.0       1.8
 1 H  px              0.2       2.8       0.0       0.3       0.0       4.9
 1 H  py              0.0       0.0       0.0       0.0       3.0       0.0
 2 H  s               0.1      15.7      18.1       4.2       0.0      35.4
 2 H  pz              0.1       1.3       0.9       1.1       0.0       1.8
 2 H  px              0.2       2.8       0.0       0.3       0.0       4.9
 2 H  py              0.0       0.0       0.0       0.0       3.0       0.0

                      6         7         8         9        10        11   
                   0.09886   0.50336   0.56035   0.85349   0.86263   0.94586
                   0.00000   0.00000   0.00000   0.00000   0.00000   0.00000
                  --------  --------  --------  --------  --------  --------
 0 O  s               0.0       0.0       2.2       3.1       0.0       0.0
 0 O  pz              0.0       0.0      12.0      72.2       0.0       0.0
 0 O  px             17.7       9.6       0.0       0.0       0.0      82.6
 0 O  py              0.0       0.0       0.0       0.0      94.4       0.0
 0 O  dxz             0.7       9.1       0.0       0.0       0.0       4.0
 0 O  dx2y2           0.0       0.0       3.8       2.8       0.0       0.0
 1 H  s              33.4      35.8      32.5       1.7       0.0       2.7
 1 H  pz              3.8       4.6       0.2       6.5       0.0       0.7
 1 H  px              3.6       0.2       8.2       2.7       0.0       3.3
 1 H  py              0.0       0.0       0.0       0.0       2.8       0.0
 2 H  s              33.4      35.8      32.5       1.7       0.0       2.7
 2 H  pz              3.8       4.6       0.2       6.5       0.0       0.7
 2 H  px              3.6       0.2       8.2       2.7       0.0       3.3
 2 H  py              0.0       0.0       0.0       0.0       2.8       0.0

                     12        13        14        15        16        17   
                   1.14628   1.19061   1.36957   1.53794   1.61409   2.01163
                   0.00000   0.00000   0.00000   0.00000   0.00000   0.00000
                  --------  --------  --------  --------  --------  --------
 0 O  s              10.8       0.0       0.0      77.3       0.0       0.0
 0 O  pz             14.8       0.0       0.0       2.7       0.0       0.0
 0 O  px              0.0       0.0       0.0       0.0       8.7      13.9
 0 O  py              0.0       0.0      10.4       0.0       0.0       0.0
 0 O  dz2            10.0       0.0       0.0       5.7       0.0       0.0
 0 O  dxz             0.0       0.0       0.0       0.0       1.4      16.8
 0 O  dyz             0.0       0.0      11.3       0.0       0.0       0.0
 0 O  dx2y2           0.5       0.0       0.0       8.7       0.0       0.0
 0 O  dxy             0.0       9.6       0.0       0.0       0.0       0.0
 1 H  s               1.9       0.0       0.0       0.8       0.7       1.2
 1 H  pz             20.6       0.0       0.0       1.9      27.2      11.0
 1 H  px              9.4       0.0       0.0       0.1      17.0      22.4
 1 H  py              0.0      45.2      39.2       0.0       0.0       0.0
 2 H  s               1.9       0.0       0.0       0.8       0.7       1.2
 2 H  pz             20.6       0.0       0.0       1.9      27.2      11.0
 2 H  px              9.4       0.0       0.0       0.1      17.0      22.4
 2 H  py              0.0      45.2      39.2       0.0       0.0       0.0

                     18        19        20        21        22        23   
                   2.05170   2.84089   2.86765   3.03844   3.35695   3.64269
                   0.00000   0.00000   0.00000   0.00000   0.00000   0.00000
                  --------  --------  --------  --------  --------  --------
 0 O  s              14.4       0.0       0.0       0.4      12.9       0.0
 0 O  pz              8.6       0.0       0.0       1.5       3.1       0.0
 0 O  px              0.0       0.0       0.0       0.0       0.0       6.4
 0 O  py              0.0       1.2       0.0       0.0       0.0       0.0
 0 O  dz2             0.9       0.0       0.0      80.5       2.8       0.0
 0 O  dxz             0.0       0.0       0.0       0.0       0.0      67.1
 0 O  dyz             0.0      88.7       0.0       0.0       0.0       0.0
 0 O  dx2y2          18.2       0.0       0.0       5.7      59.9       0.0
 0 O  dxy             0.0       0.0      90.4       0.0       0.0       0.0
 1 H  s               1.1       0.0       0.0       0.1       6.6       8.0
 1 H  pz             10.6       0.0       0.0       3.8       2.0       1.7
 1 H  px             17.3       0.0       0.0       2.0       2.0       3.5
 1 H  py              0.0       5.0       4.8       0.0       0.0       0.0
 2 H  s               1.1       0.0       0.0       0.1       6.6       8.0
 2 H  pz             10.6       0.0       0.0       3.8       2.0       1.7
 2 H  px             17.3       0.0       0.0       2.0       2.0       3.5
 2 H  py              0.0       5.0       4.8       0.0       0.0       0.0



                      *****************************
                      * MAYER POPULATION ANALYSIS *
                      *****************************

  NA   - Mulliken gross atomic population
  ZA   - Total nuclear charge
  QA   - Mulliken gross atomic charge
  VA   - Mayer's total valence
  BVA  - Mayer's bonded valence
  FA   - Mayer's free valence

  ATOM       NA         ZA         QA         VA         BVA        FA
  0 O      8.2415     8.0000    -0.2415     2.0682     2.0682    -0.0000
  1 H      0.8792     1.0000     0.1208     1.0396     1.0396    -0.0000
  2 H      0.8792     1.0000     0.1208     1.0396     1.0396    -0.0000

  Mayer bond orders larger than 0.100000
B(  0-O ,  1-H ) :   1.0341 B(  0-O ,  2-H ) :   1.0341 

-------
TIMINGS
-------

Total SCF time: 0 days 0 hours 0 min 0 sec 

Total time                  ....       0.166 sec
Sum of individual times     ....       0.144 sec  ( 86.3%)

SCF preparation             ....       0.022 sec  ( 13.5%)
Fock matrix formation       ....       0.109 sec  ( 65.7%)
  Startup                   ....       0.000 sec  (  0.2% of F)
  Split-RI-J                ....       0.011 sec  ( 10.1% of F)
  XC integration            ....       0.109 sec  ( 99.9% of F)
    XC Preparation          ....       0.000 sec  (  0.0% of XC)
    Basis function eval.    ....       0.050 sec  ( 46.2% of XC)
    Density eval.           ....       0.015 sec  ( 13.5% of XC)
    XC-Functional eval.     ....       0.021 sec  ( 19.1% of XC)
    XC-Potential eval.      ....       0.010 sec  (  8.8% of XC)
Diagonalization             ....       0.000 sec  (  0.0%)
Density matrix formation    ....       0.001 sec  (  0.5%)
Total Energy calculation    ....       0.000 sec  (  0.1%)
Population analysis         ....       0.008 sec  (  4.6%)
Orbital Transformation      ....       0.000 sec  (  0.2%)
Orbital Orthonormalization  ....       0.000 sec  (  0.0%)
DIIS solution               ....       0.002 sec  (  1.2%)
  MO trafo                  ....       0.000 sec  (  0.0 % of DIIS)
  Orb grad                  ....       0.000 sec  (  0.0 % of DIIS)
  Energy W gradient         ....       0.000 sec  (  0.0 % of DIIS)
  DIIS error                ....       0.000 sec  (  2.4 % of DIIS)
  DIIS work                 ....       0.002 sec  ( 84.1 % of DIIS)
  Form Q                    ....       0.000 sec  (  0.0 % of DIIS)
  Form QpQm                 ....       0.000 sec  (  0.0 % of DIIS)
  Exp/Cayley                ....       0.000 sec  (  0.0 % of DIIS)
  Orb update                ....       0.000 sec  (  0.0 % of DIIS)
  Wake-sleep                ....       0.000 sec  (  5.3 % of DIIS)
SOSCF solution              ....       0.001 sec  (  0.4%)
  MO trafo                  ....       0.000 sec  ( 40.7 % of SOSCF)
  Orb grad                  ....       0.000 sec  (  3.0 % of SOSCF)
  Rot update                ....       0.000 sec  (  7.3 % of SOSCF)
  Step                      ....       0.000 sec  ( 20.3 % of SOSCF)
Finished LeanSCF after   0.2 sec

Maximum memory used throughout the entire LEANSCF-calculation: 4.6 MB

-------------------------   --------------------
FINAL SINGLE POINT ENERGY       -76.398880867178
-------------------------   --------------------


------------------------------------------------------------------------------
                              ORCA PROPERTY CALCULATIONS
------------------------------------------------------------------------------

GBWName                                 ... water.gbw
Number of atoms                         ...      3
Number of basis functions               ...     30
Max core memory                         ...   4096 MB

Electric properties:
Dipole moment                           ... YES
Quadrupole moment                       ...  NO
Static polarizability (Dipole/Dipole)   ...  NO
Static polarizability (Dipole/Quad.)    ...  NO
Static polarizability (Quad./Quad.)     ...  NO
Static polarizability (Velocity)        ...  NO
Static hyperpolarizability              ...  NO

Atomic electric properties:
Dipole moment                           ...  NO
Quadrupole moment                       ...  NO
Static polarizability                   ...  NO

Choice of electric origin               ... Center of mass
Position of electric origin             ...    -0.000000     0.000000     0.003693

General magnetic properties:
Magnetizability                         ...  NO

EPR properties:
g-Tensor (aka g-matrix)                 ...  NO
Zero-Field splitting spin-orbit         ...  NO
Zero-field splitting spin-spin          ...  NO
Hyperfine couplings                     ...  NO (   0 nuclei)
Quadrupole couplings                    ...  NO (   0 nuclei)
Contact density                         ...  NO (   0 nuclei)

NMR properties:
Chemical shifts                         ...  NO (   0 nuclei)
Spin-rotation constants                 ...  NO (   0 nuclei)
Spin-spin couplings                     ...  NO (   0 nuclei,    0 pairs)

Choice of magnetic origin               ... GIAO
Position of magnetic origin             ...     0.000000     0.000000     0.000000

Properties with geometric perturbations:
SCF Hessian                             ...  NO
IR spectrum                             ...  NO
VCD spectrum                            ...  NO
X-ray spectroscopy properties:
SCF XES/XAS/RIXS spectra                ...  NO

SCF SOC stabilization energy            ...  NO
Diagonal Born-Oppenheimer correction    ...  NO

-------------
DIPOLE MOMENT
-------------

Method             : SCF
Type of density    : Electron Density
Multiplicity       :   1
Irrep              :   0
Energy             :   -76.3988808671782067 Eh
Basis              : AO
                                X                 Y                 Z
Electronic contribution:      0.000000000       0.000000000      -0.277123903
Nuclear contribution   :      0.000000000       0.000000000       1.013072440
                        -----------------------------------------
Total Dipole Moment    :      0.000000000       0.000000000       0.735948537
                        -----------------------------------------
Magnitude (a.u.)       :      0.735948537
Magnitude (Debye)      :      1.870632519



--------------------
Rotational spectrum 
--------------------
 
Rotational constants in cm-1:            25.424328            14.450671             9.213758 
Rotational constants in MHz :        762202.175523        433220.231361        276221.527154 

Dipole components along the rotational axes: 
x,y,z [a.u.] :    -0.000000     0.735949    -0.000000 
x,y,z [Debye]:    -0.000000     1.870633    -0.000000 

 

Dipole moment calculation done in   0.0 sec 

Maximum memory used throughout the entire PROP-calculation: 3.4 MB

--------------------------------
SUGGESTED CITATIONS FOR THIS RUN
--------------------------------

Below you find a list of papers that are relevant to this ORCA run
We neither can nor want to force you to cite these papers, but we appreciate if you do
You receive ORCA, which is the product of decades of hard work by many enthusiastic individuals, for free
The only thing we kindly ask in return is that you cite our papers,
We deeply appreciate it, if you show your appreciation for ORCA by not just citing the generic ORCA reference.

Please note that relegating all ORCA citations to the supporting information does *not* help us.
SI sections are not indexed - citations you put there will not count into any citation statistics
But we need these citations in order to attract the funding resources that allow us to do what we are doing

Therefore, if you are a happy ORCA user, please consider citing a few of the papers listed below in the main body of your paper

In addition to the list printed below, the program has created the file water.bibtex that contains the list in bibtex format
You can import this file easily into all common literature databanks and citation aid programs

It goes without saying that in many instances, there are alternative algorithms to achieve similar
results as the ones you have gotten from ORCA. It is, of course, also the case that in some instances
ORCA just re-implements algorithms worked out by others. We are fully aware of that and we are also
fully appreciative of our colleagues work. Hence this citation list should not be read as indicating
that the listed papers, which are focused on our own work, are the only ones worth citing. It simply
meant to make it easier for users to cite ORCA specific papers. It is not a substitute for doing your
own literature research and citing the relevant literature in a scientifically appropriate manner.

List of essential papers. We consider these as the minimum necessary citations

  1. Neese, F.
     Software update: the ORCA program system, version 6.0
     WIRES Comput. Molec. Sci. 2025 15(1), e70019
     doi.org/10.1002/wcms.70019

List of papers to cite with high priority. The work reported in these papers was absolutely
necessary for this run to complete.
Our perspective: the developers of density functionals and basis sets usually get cited in chemistry papers
Good! But without the algorithms to do something with them, the functionals or basis sets would not do anything.
Hence, in our opinion, the algorithm design and method developments papers are equally worthy of getting cited

  1. Neese, F.
     An improvement of the resolution of the identity approximation for the formation of the Coulomb matrix
     J. Comp. Chem. 2003 24(14), 1740-1747
     doi.org/10.1002/jcc.10318
  2. Neese, F.
     The SHARK Integral Generation and Digestion System
     J. Comp. Chem. 2022 44(3), 381
     doi.org/10.1002/jcc.26942

List of suggested additional citations. These are papers that are important in the 'surrounding' of 
of this run, or papers that preceded the highly important papers. If you like your results we are grateful for a citation.

  1. Neese, F.
     The ORCA program system
     WIRES Comput. Molec. Sci. 2012 2(1), 73-78
     doi.org/10.1002/wcms.81
  2. Neese, F.
     Software update: the ORCA program system, version 4.0
     WIRES Comput. Molec. Sci. 2018 8(1), 1-6
     doi.org/10.1002/wcms.1327
  3. Neese, F.; Wennmohs, F.; Becker, U.; Riplinger, C.
     The ORCA quantum chemistry program package
     J. Chem. Phys. 2020 152(22), 224108
     doi.org/10.1063/5.0004608
  4. Neese, F.
     Software update: The ORCA program system—Version 5.0
     WIRES Comput. Molec. Sci. 2022 12(1), e1606
     doi.org/10.1002/wcms.1606

List of optional additional citations

  1. Neese, F.
     Approximate second-order SCF convergence for spin unrestricted wavefunctions
     Chem. Phys. Lett. 2000 325(1-3), 93-98
     doi.org/10.1016/s0009-2614(00)00662-x

Timings for individual modules:

Sum of individual times          ...        0.413 sec (=   0.007 min)
Startup calculation              ...        0.162 sec (=   0.003 min)  39.2 %
SCF iterations                   ...        0.220 sec (=   0.004 min)  53.3 %
Property calculations            ...        0.031 sec (=   0.001 min)   7.5 %
                             ****ORCA TERMINATED NORMALLY****
TOTAL RUN TIME: 0 days 0 hours 0 minutes 0 seconds 458 msec
